# vtk DataFile Version 1.0
Unstructured Grid Example
ASCII

DATASET UNSTRUCTURED_GRID
POINTS 10656 float
319 35 0
10 4 0
329 63 0
343 84 0
290 308 0
370 363 0
347 332 0
433 247 0
506 97 0
512 202 0
29 30 0
142 58 0
201 30 0
178 73 0
230 85 0
37 65 0
24 70 0
234 97 0
224 92 0
242 109 0
156 126 0
279 462 0
293 399 0
290 193 0
289 125 0
330 353 0
311 300 0
299 377 0
314 413 0
411 354 0
374 393 0
361 309 0
404 293 0
418 293 0
458 281 0
392 283 0
319 274 0
369 8 0
342 79 0
400 257 0
407 11 0
99 6 0
103 39 0
18 42 0
106 42 0
134 31 0
135 4 0
127 3 0
147 17 0
141 6 0
177 25 0
271 8 0
300 51 0
318 44 0
206 25 0
171 31 0
187 80 0
165 81 0
212 90 0
239 83 0
305 163 0
316 170 0
271 165 0
247 125 0
118 81 0
153 89 0
127 75 0
80 69 0
32 74 0
21 56 0
64 98 0
67 111 0
184 213 0
249 312 0
271 235 0
255 315 0
251 363 0
250 341 0
239 354 0
236 438 0
227 391 0
236 485 0
0 505 0
252 505 0
244 420 0
259 412 0
250 405 0
286 361 0
293 388 0
287 414 0
286 421 0
305 447 0
320 513 0
306 443 0
294 412 0
303 253 0
311 317 0
288 302 0
283 257 0
277 251 0
289 233 0
299 182 0
308 197 0
326 271 0
328 266 0
331 266 0
362 297 0
368 319 0
352 300 0
335 286 0
326 320 0
323 334 0
320 352 0
329 479 0
331 432 0
361 390 0
364 341 0
343 328 0
375 327 0
422 284 0
405 348 0
406 400 0
466 454 0
435 513 0
451 310 0
429 303 0
392 267 0
427 277 0
384 277 0
381 266 0
443 229 0
427 260 0
446 234 0
456 264 0
455 226 0
414 89 0
472 83 0
428 78 0
369 114 0
371 133 0
354 147 0
361 220 0
337 171 0
344 190 0
336 140 0
326 219 0
330 105 0
324 94 0
340 84 0
343 118 0
409 40 0
417 72 0
377 56 0
348 71 0
342 15 0
341 1 0
348 22 0
418 18 0
437 49 0
443 16 0
446 55 0
439 77 0
462 73 0
454 56 0
480 27 0
497 4 0
14 1 0
33 1 0
53 1 0
27 11 0
57 8 0
23 4 0
3 13 0
21 21 0
57 22 0
56 37 0
61 43 0
78 37 0
73 45 0
72 31 0
82 23 0
106 37 0
84 26 0
114 41 0
125 45 0
152 45 0
144 47 0
132 43 0
141 37 0
129 25 0
147 24 0
111 13 0
106 22 0
85 4 0
83 5 0
93 12 0
145 7 0
159 2 0
166 11 0
168 17 0
173 12 0
182 14 0
172 5 0
211 4 0
286 8 0
245 1 0
286 4 0
307 2 0
301 12 0
288 10 0
230 10 0
225 20 0
189 21 0
203 26 0
219 32 0
294 25 0
297 37 0
235 33 0
225 49 0
195 37 0
179 38 0
183 42 0
182 32 0
187 22 0
175 23 0
178 27 0
158 33 0
169 42 0
188 71 0
180 75 0
186 83 0
196 83 0
205 87 0
189 77 0
196 62 0
221 56 0
217 64 0
229 83 0
237 85 0
280 94 0
228 86 0
223 87 0
208 91 0
241 113 0
253 106 0
258 124 0
258 97 0
307 138 0
286 131 0
276 141 0
258 138 0
234 116 0
230 119 0
235 107 0
222 97 0
209 101 0
217 99 0
183 106 0
218 122 0
159 117 0
161 107 0
156 119 0
142 100 0
128 93 0
152 84 0
158 91 0
179 91 0
156 79 0
158 66 0
161 63 0
159 56 0
125 60 0
144 64 0
120 75 0
120 83 0
99 54 0
92 58 0
82 53 0
91 50 0
22 51 0
61 49 0
78 52 0
38 57 0
5 81 0
7 77 0
23 66 0
56 68 0
74 82 0
115 87 0
41 81 0
21 132 0
29 221 0
206 282 0
188 299 0
240 167 0
224 302 0
221 157 0
234 150 0
257 269 0
260 149 0
262 276 0
264 141 0
266 305 0
267 307 0
260 306 0
251 297 0
242 330 0
251 317 0
264 327 0
264 308 0
252 337 0
251 332 0
245 340 0
238 336 0
230 346 0
238 345 0
232 335 0
238 309 0
206 333 0
223 315 0
139 337 0
229 343 0
226 347 0
237 363 0
244 356 0
239 384 0
241 372 0
219 370 0
177 383 0
228 418 0
0 410 0
240 419 0
78 495 0
241 431 0
243 429 0
242 422 0
244 414 0
260 407 0
248 409 0
249 455 0
251 464 0
268 426 0
262 417 0
268 403 0
266 402 0
268 389 0
257 382 0
250 385 0
247 389 0
247 356 0
245 360 0
248 350 0
263 371 0
270 362 0
274 334 0
279 341 0
289 383 0
272 376 0
271 378 0
269 377 0
271 398 0
270 391 0
269 422 0
271 447 0
282 502 0
273 474 0
281 446 0
280 420 0
291 400 0
294 383 0
293 422 0
297 450 0
301 461 0
298 432 0
301 396 0
305 379 0
304 367 0
306 355 0
298 369 0
289 365 0
290 328 0
297 345 0
303 342 0
303 345 0
306 324 0
304 302 0
305 296 0
302 295 0
299 285 0
297 290 0
290 296 0
299 307 0
283 303 0
279 308 0
276 303 0
269 305 0
274 295 0
277 288 0
284 294 0
285 289 0
282 183 0
291 283 0
278 278 0
269 280 0
279 152 0
277 170 0
293 144 0
294 172 0
299 156 0
296 148 0
296 175 0
300 252 0
307 273 0
302 260 0
303 200 0
307 185 0
309 255 0
315 257 0
310 272 0
324 260 0
316 244 0
317 224 0
328 223 0
344 225 0
329 236 0
347 229 0
352 220 0
356 264 0
358 262 0
341 246 0
340 264 0
327 278 0
332 282 0
351 274 0
355 300 0
342 315 0
358 314 0
341 302 0
340 307 0
321 304 0
322 292 0
321 285 0
318 279 0
309 312 0
311 293 0
312 313 0
317 315 0
309 316 0
314 330 0
316 331 0
315 355 0
320 379 0
311 334 0
308 364 0
315 415 0
312 415 0
312 426 0
309 462 0
324 441 0
323 455 0
315 430 0
321 414 0
333 364 0
335 372 0
340 379 0
325 428 0
355 391 0
343 398 0
349 372 0
343 352 0
333 349 0
337 335 0
331 340 0
329 342 0
344 325 0
338 326 0
349 334 0
353 328 0
365 316 0
371 316 0
371 308 0
380 319 0
379 333 0
373 336 0
366 325 0
377 336 0
376 346 0
359 365 0
361 375 0
395 469 0
383 377 0
390 347 0
393 345 0
425 333 0
409 416 0
479 513 0
448 513 0
512 475 0
500 496 0
490 458 0
512 426 0
399 326 0
413 329 0
399 323 0
396 328 0
426 311 0
414 310 0
436 305 0
444 323 0
442 268 0
470 275 0
493 262 0
460 255 0
408 292 0
413 269 0
427 297 0
422 302 0
402 298 0
396 292 0
376 303 0
371 291 0
378 258 0
361 261 0
379 273 0
384 288 0
437 245 0
428 245 0
377 255 0
371 251 0
373 236 0
367 222 0
390 232 0
418 242 0
447 232 0
456 222 0
444 232 0
444 236 0
495 248 0
477 255 0
465 232 0
466 228 0
503 209 0
465 212 0
427 214 0
480 207 0
490 199 0
501 204 0
506 204 0
500 198 0
474 194 0
512 104 0
512 95 0
422 67 0
453 64 0
462 83 0
446 112 0
409 74 0
407 80 0
395 72 0
422 63 0
387 79 0
385 71 0
370 84 0
390 128 0
366 174 0
370 161 0
372 150 0
374 169 0
420 217 0
418 210 0
375 214 0
373 212 0
364 217 0
362 190 0
359 160 0
351 162 0
354 183 0
341 186 0
339 214 0
333 196 0
326 182 0
323 179 0
312 193 0
313 160 0
308 162 0
318 163 0
320 173 0
325 152 0
338 126 0
324 147 0
322 149 0
321 93 0
307 79 0
324 112 0
338 63 0
340 69 0
348 67 0
339 114 0
339 142 0
356 124 0
348 122 0
351 83 0
362 81 0
400 62 0
399 55 0
392 47 0
382 47 0
382 44 0
345 49 0
386 59 0
339 57 0
330 57 0
326 59 0
316 52 0
311 39 0
317 46 0
322 30 0
338 37 0
325 18 0
328 26 0
309 18 0
308 26 0
328 5 0
340 13 0
344 1 0
345 10 0
366 5 0
346 3 0
362 12 0
349 12 0
396 12 0
396 20 0
371 11 0
375 8 0
423 5 0
421 9 0
426 21 0
429 8 0
434 32 0
423 24 0
414 27 0
412 30 0
407 39 0
412 39 0
405 46 0
415 60 0
417 62 0
423 54 0
429 47 0
432 34 0
454 34 0
435 30 0
466 41 0
447 47 0
469 55 0
473 61 0
467 43 0
509 39 0
488 15 0
501 14 0
475 26 0
438 18 0
457 11 0
488 7 0
496 1 0
500 5 0
22 1 0
3 7 0
0 11 0
67 7 0
70 10 0
29 1 0
39 1 0
76 1 0
79 7 0
93 2 0
95 4 0
92 8 0
91 11 0
90 13 0
73 8 0
69 18 0
72 16 0
82 16 0
94 14 0
91 24 0
89 26 0
89 20 0
71 22 0
54 27 0
68 28 0
9 25 0
44 24 0
0 15 0
6 16 0
0 26 0
5 27 0
22 29 0
34 31 0
41 34 0
53 38 0
29 37 0
7 39 0
0 38 0
3 61 0
9 47 0
30 62 0
39 63 0
45 61 0
41 56 0
55 42 0
52 41 0
75 55 0
62 40 0
62 58 0
56 64 0
88 49 0
87 62 0
76 46 0
92 39 0
71 35 0
69 39 0
68 36 0
66 39 0
60 33 0
57 34 0
64 34 0
95 31 0
99 29 0
127 30 0
131 30 0
133 34 0
130 33 0
121 35 0
101 35 0
113 38 0
109 43 0
100 47 0
109 54 0
121 66 0
121 45 0
133 40 0
130 36 0
142 49 0
138 47 0
142 55 0
146 57 0
152 52 0
146 50 0
148 48 0
150 46 0
146 44 0
144 41 0
143 44 0
141 46 0
136 38 0
149 39 0
154 27 0
155 35 0
150 27 0
152 25 0
150 18 0
138 10 0
147 11 0
143 13 0
137 24 0
131 18 0
98 25 0
97 27 0
95 25 0
102 15 0
107 12 0
120 12 0
136 15 0
112 8 0
108 5 0
103 7 0
96 9 0
112 1 0
98 4 0
116 4 0
120 1 0
129 5 0
122 2 0
132 6 0
134 9 0
150 8 0
140 9 0
137 6 0
155 3 0
155 9 0
164 2 0
167 1 0
178 14 0
169 12 0
167 13 0
163 13 0
158 23 0
157 17 0
165 24 0
166 27 0
168 25 0
172 23 0
168 22 0
175 19 0
185 17 0
183 18 0
181 22 0
179 29 0
189 28 0
192 29 0
188 24 0
192 22 0
192 16 0
189 15 0
187 13 0
184 15 0
180 12 0
185 1 0
188 6 0
191 3 0
203 1 0
195 4 0
201 13 0
242 7 0
274 1 0
208 1 0
254 1 0
283 1 0
293 2 0
305 1 0
312 2 0
298 8 0
296 4 0
294 6 0
282 8 0
283 18 0
294 14 0
297 18 0
306 15 0
308 21 0
304 22 0
302 25 0
286 22 0
207 30 0
268 27 0
213 23 0
244 16 0
206 18 0
195 19 0
197 22 0
204 29 0
198 31 0
212 35 0
198 41 0
238 41 0
230 46 0
222 37 0
224 33 0
298 40 0
288 40 0
299 31 0
302 30 0
311 47 0
297 47 0
293 47 0
289 49 0
280 59 0
271 55 0
298 56 0
302 59 0
288 64 0
274 61 0
260 65 0
247 64 0
213 61 0
241 65 0
217 56 0
215 51 0
206 58 0
207 50 0
203 63 0
209 64 0
179 57 0
174 60 0
172 57 0
172 64 0
191 46 0
182 50 0
193 51 0
197 55 0
191 40 0
193 43 0
188 36 0
192 33 0
173 38 0
185 39 0
173 43 0
179 45 0
164 44 0
164 37 0
169 33 0
163 31 0
155 41 0
156 38 0
157 42 0
158 46 0
158 53 0
158 49 0
165 47 0
169 53 0
171 59 0
170 55 0
169 63 0
166 58 0
199 76 0
204 76 0
210 70 0
207 77 0
202 80 0
201 77 0
198 78 0
199 88 0
200 82 0
198 97 0
202 106 0
204 96 0
211 96 0
203 82 0
205 80 0
211 92 0
221 89 0
221 99 0
219 104 0
222 103 0
223 100 0
228 92 0
225 85 0
228 81 0
227 84 0
219 81 0
217 83 0
214 77 0
213 73 0
217 80 0
226 67 0
234 66 0
229 70 0
233 85 0
244 81 0
237 80 0
244 77 0
237 71 0
254 68 0
267 70 0
298 72 0
309 73 0
302 81 0
287 73 0
251 76 0
245 73 0
306 89 0
250 85 0
309 94 0
312 90 0
309 101 0
285 104 0
257 105 0
255 101 0
249 95 0
248 98 0
247 92 0
238 89 0
232 89 0
235 88 0
233 91 0
235 104 0
267 119 0
266 122 0
266 125 0
274 117 0
269 121 0
267 116 0
273 112 0
287 122 0
293 119 0
298 117 0
312 110 0
291 131 0
306 130 0
291 128 0
277 133 0
287 139 0
292 134 0
297 139 0
306 134 0
302 155 0
310 154 0
293 155 0
287 154 0
278 149 0
282 144 0
285 141 0
274 139 0
266 147 0
271 137 0
268 152 0
272 154 0
265 152 0
250 137 0
248 139 0
241 137 0
256 133 0
242 129 0
260 130 0
263 134 0
259 127 0
252 121 0
262 114 0
262 111 0
251 113 0
245 123 0
238 124 0
241 126 0
226 117 0
228 115 0
235 112 0
229 110 0
214 107 0
202 115 0
224 115 0
205 118 0
213 131 0
202 135 0
232 125 0
236 122 0
221 149 0
229 144 0
218 139 0
208 138 0
193 144 0
193 129 0
193 124 0
187 112 0
182 111 0
192 116 0
186 147 0
180 153 0
172 149 0
165 130 0
155 143 0
168 117 0
162 113 0
170 127 0
175 118 0
171 110 0
168 105 0
159 109 0
156 109 0
166 101 0
161 96 0
172 92 0
176 104 0
178 94 0
184 93 0
179 104 0
[...]
CELL_DATA 21048
COLOR_SCALARS ColorSpace 1
0.454902
0.265359
0.308497
0.24183
0.192157
0.281046
0.270588
0.305882
0.350327
0.264052
0.288889
0.386928
0.423529
0.478431
0.265359
0.237908
0.287582
0.504575
0.227451
0.304575
0.377778
0.19085
0.291503
0.347712
0.252288
0.299346
0.31634
0.473203
0.552941
0.249673
0.228758
0.373856
0.298039
0.386928
0.381699
0.428758
0.437908
0.326797
0.328105
0.239216
0.402614
0.317647
0.183007
0.512418
0.509804
0.413072
0.530719
0.35817
0.453595
0.356863
0.339869
0.488889
0.658824
0.326797
0.532026
0.418301
0.372549
0.529412
0.290196
0.304575
0.72549
0.34902
0.352941
0.291503
0.488889
0.402614
0.520261
0.227451
0.277124
0.300654
0.296732
0.377778
0.622222
0.300654
0.216993
0.216993
0.270588
0.252288
0.262745
0.360784
0.362092
0.34902
0.449673
0.347712
0.196078
0.183007
0.254902
0.40915
0.461438
0.466667
0.356863
0.321569
0.305882
0.402614
0.266667
0.29281
0.188235
0.162092
0.188235
0.346405
0.360784
0.176471
0.398693
0.352941
0.386928
0.413072
0.295425
0.466667
0.447059
0.30719
0.121569
0.300654
0.264052
0.43268
0.14902
0.524183
0.464052
0.380392
0.332026
0.343791
0.4
0.27451
0.388235
0.445752
0.356863
0.313725
0.416993
0.247059
0.321569
0.551634
0.271895
0.281046
0.320261
0.248366
0.518954
0.512418
0.556863
0.243137
0.440523
0.550327
0.542484
0.550327
0.266667
0.524183
0.329412
0.494118
0.380392
0.366013
0.359477
0.491503
0.515033
0.515033
0.304575
0.542484
0.48366
0.551634
0.477124
0.488889
0.50719
0.337255
0.362092
0.433987
0.252288
0.36732
0.265359
0.577778
0.240523
0.44183
0.598693
0.386928
0.288889
0.258824
0.271895
0.385621
0.4
0.488889
0.528105
0.324183
0.328105
0.381699
0.373856
0.533333
0.713725
0.339869
0.414379
0.355556
0.303268
0.343791
0.398693
0.479739
0.309804
0.546405
0.275817
0.535948
0.443137
0.252288
0.495425
0.473203
0.36732
0.503268
0.317647
0.500654
0.484967
0.447059
0.308497
0.315033
0.286275
0.338562
0.520261
0.315033
0.309804
0.311111
0.301961
0.278431
0.372549
0.545098
0.484967
0.414379
0.499346
0.495425
0.261438
0.369935
0.269281
0.308497
0.324183
0.245752
0.318954
0.623529
0.380392
0.713725
0.466667
0.247059
0.488889
0.504575
0.511111
0.491503
0.520261
0.546405
0.526797
0.290196
0.488889
0.461438
0.260131
0.392157
0.363399
0.503268
0.43268
0.475817
0.282353
0.534641
0.433987
0.337255
0.230065
0.294118
0.343791
0.235294
0.194771
0.447059
0.376471
0.186928
0.542484
0.460131
0.356863
0.326797
0.299346
0.530719
0.491503
0.351634
0.188235
0.284967
0.375163
0.207843
0.330719
0.321569
0.210458
0.475817
0.175163
0.179085
0.228758
0.364706
0.355556
0.151634
0.215686
0.231373
0.150327
0.256209
0.332026
0.185621
0.320261
0.290196
0.371242
0.393464
0.296732
0.31634
0.332026
0.312418
0.445752
0.296732
0.299346
0.351634
0.308497
0.309804
0.270588
0.375163
0.287582
0.381699
0.291503
0.295425
0.401307
0.266667
0.559477
0.305882
0.29281
0.271895
0.254902
0.354248
0.236601
0.277124
0.317647
0.301961
0.271895
0.339869
0.298039
0.239216
0.286275
0.249673
0.278431
0.265359
0.249673
0.287582
0.228758
0.296732
0.279739
0.328105
0.260131
0.317647
0.278431
0.407843
0.295425
0.335948
0.304575
0.284967
0.326797
0.197386
0.301961
0.461438
0.332026
0.328105
0.410458
0.31634
0.262745
0.520261
0.410458
0.465359
0.393464
0.491503
0.470588
0.524183
0.453595
0.436601
0.585621
0.43268
0.245752
0.413072
0.439216
0.372549
0.431373
0.422222
0.313725
0.237908
0.231373
0.231373
0.247059
0.330719
0.295425
0.363399
0.491503
0.162092
0.186928
0.381699
0.253595
0.366013
0.237908
0.34902
0.211765
0.186928
0.256209
0.210458
0.175163
0.175163
0.269281
0.15817
0.172549
0.35817
0.181699
0.213072
0.216993
0.290196
0.196078
0.222222
0.133333
0.150327
0.163399
0.219608
0.117647
0.312418
0.339869
0.338562
0.298039
0.203922
0.470588
0.175163
0.44183
0.172549
0.197386
0.270588
0.184314
0.286275
0.330719
0.320261
0.301961
0.27451
0.298039
0.397386
0.295425
0.291503
0.388235
0.237908
0.426144
0.341176
0.334641
0.301961
0.494118
0.392157
0.389542
0.313725
0.159477
0.39085
0.337255
0.363399
0.278431
0.286275
0.419608
0.211765
0.363399
0.244444
0.282353
0.279739
0.223529
0.163399
0.308497
0.312418
0.338562
0.249673
0.20915
0.318954
0.27451
0.185621
0.171242
0.32549
0.309804
0.264052
0.244444
0.332026
0.296732
0.273203
0.338562
0.294118
0.324183
0.449673
0.193464
0.185621
0.19085
0.130719
0.443137
0.462745
0.564706
0.356863
0.414379
0.305882
0.40915
0.555556
0.380392
0.55817
0.335948
0.239216
0.288889
0.141176
0.388235
0.375163
0.352941
0.313725
0.377778
0.313725
0.500654
0.563399
0.552941
0.375163
0.30719
0.303268
0.376471
0.526797
0.556863
0.311111
0.55817
0.495425
0.556863
0.505882
0.351634
0.266667
0.384314
0.328105
0.369935
0.326797
0.444444
0.265359
0.397386
0.301961
0.329412
0.346405
0.249673
0.552941
0.324183
0.36732
0.522876
0.239216
0.264052
0.342484
0.321569
0.317647
0.262745
0.287582
0.356863
0.375163
0.343791
0.350327
0.392157
0.273203
0.267974
0.324183
0.271895
0.354248
0.355556
0.312418
0.308497
0.401307
0.243137
0.284967
0.343791
0.300654
0.355556
0.304575
0.477124
0.394771
0.496732
0.341176
0.452288
0.320261
0.466667
0.555556
0.538562
0.552941
0.520261
0.538562
0.521569
0.431373
0.555556
0.332026
0.521569
0.352941
0.556863
0.559477
0.385621
0.559477
0.532026
0.537255
0.55817
0.55817
0.411765
0.312418
0.448366
0.413072
0.545098
0.443137
0.546405
0.32549
0.490196
0.528105
0.320261
0.380392
0.465359
0.575163
0.321569
0.471895
0.484967
0.394771
0.526797
0.473203
0.303268
0.312418
0.347712
0.35817
0.359477
0.381699
0.301961
0.273203
0.381699
0.517647
0.413072
0.333333
0.427451
0.290196
0.528105
0.47451
0.51634
0.49281
0.52549
0.51634
0.517647
0.477124
0.445752
0.517647
0.55817
0.401307
0.278431
0.362092
0.347712
0.4
0.394771
0.290196
0.511111
0.298039
0.504575
0.517647
0.477124
0.487582
0.364706
0.343791
0.360784
0.486275
0.478431
0.475817
0.54902
0.230065
0.219608
0.247059
0.430065
0.271895
0.636601
0.496732
0.294118
0.288889
0.503268
0.511111
0.491503
0.299346
0.486275
0.402614
0.215686
0.343791
0.335948
0.244444
0.427451
0.551634
0.428758
0.462745
0.402614
0.396078
0.392157
0.294118
0.571242
0.410458
0.36732
0.377778
0.435294
0.371242
0.369935
0.376471
0.440523
0.317647
0.284967
0.411765
0.363399
0.534641
0.231373
0.257516
0.262745
0.267974
0.509804
0.373856
0.39085
0.398693
0.309804
0.401307
0.465359
0.420915
0.364706
0.413072
0.556863
0.422222
0.386928
0.282353
0.496732
0.185621
0.481046
0.488889
0.481046
0.491503
0.381699
0.300654
0.309804
0.371242
0.487582
0.304575
0.470588
0.394771
0.334641
0.287582
0.461438
0.347712
0.482353
0.486275
0.556863
0.296732
0.388235
0.504575
0.351634
0.281046
0.31634
0.301961
0.30719
0.304575
0.317647
0.299346
0.318954
0.386928
0.258824
0.431373
0.27451
0.303268
0.31634
0.244444
0.308497
0.277124
0.269281
0.35817
0.437908
0.260131
0.335948
0.386928
0.376471
0.6
0.51634
0.337255
0.281046
0.384314
0.56732
0.555556
0.346405
0.481046
0.460131
0.43268
0.453595
0.445752
0.364706
0.54902
0.454902
0.541176
0.475817
0.305882
0.313725
0.29281
0.281046
0.559477
0.329412
0.29281
0.563399
0.542484
0.260131
0.279739
0.303268
0.308497
0.282353
0.447059
0.473203
0.4
0.44183
0.478431
0.291503
0.368627
0.329412
0.393464
0.253595
0.303268
0.261438
0.299346
0.308497
0.207843
0.282353
0.541176
0.291503
0.515033
0.368627
0.345098
0.343791
0.552941
0.249673
0.163399
0.543791
0.388235
0.640523
0.381699
0.364706
0.445752
0.495425
0.512418
0.673203
0.470588
0.551634
0.556863
0.528105
0.335948
0.500654
0.356863
0.40915
0.55817
0.4
0.464052
0.511111
0.703268
0.482353
0.518954
0.598693
0.466667
0.528105
0.454902
0.439216
0.542484
0.321569
0.508497
0.453595
0.397386
0.518954
0.317647
0.300654
0.415686
0.508497
0.300654
0.28366
0.458824
0.471895
0.301961
0.424837
0.284967
0.379085
0.597386
0.311111
0.509804
0.439216
0.415686
0.392157
0.299346
0.397386
0.315033
0.346405
0.326797
0.286275
0.29281
0.334641
0.290196
0.253595
0.288889
0.279739
0.261438
0.330719
0.269281
0.329412
0.371242
0.413072
0.397386
0.415686
0.278431
0.423529
0.290196
0.613072
0.545098
0.369935
0.347712
0.261438
0.356863
0.301961
0.334641
0.499346
0.423529
0.464052
0.453595
0.256209
0.296732
0.379085
0.252288
0.309804
0.371242
0.321569
0.448366
0.424837
0.328105
0.305882
0.509804
0.317647
0.501961
0.239216
0.317647
0.59085
0.324183
0.386928
0.419608
0.30719
0.273203
0.44183
0.576471
0.560784
0.437908
0.329412
0.477124
0.290196
0.28366
0.298039
0.298039
0.335948
0.301961
0.355556
0.352941
0.291503
0.28366
0.286275
0.278431
0.500654
0.521569
0.308497
0.324183
0.423529
0.355556
0.36732
0.28366
0.301961
0.366013
0.518954
0.419608
0.458824
0.301961
0.511111
0.31634
0.509804
0.49281
0.496732
0.511111
0.51634
0.24183
0.51634
0.311111
0.401307
0.522876
0.524183
0.49281
0.430065
0.494118
0.479739
0.486275
0.475817
0.488889
0.501961
0.532026
0.261438
0.330719
0.264052
0.520261
0.281046
0.396078
0.296732
0.504575
0.298039
0.464052
0.30719
0.304575
0.535948
0.522876
0.52549
0.508497
0.249673
0.392157
0.54902
0.526797
0.526797
0.521569
0.247059
0.397386
0.443137
0.499346
0.27451
0.245752
0.318954
0.317647
0.397386
0.354248
0.333333
0.288889
0.273203
0.264052
0.294118
0.362092
0.394771
0.436601
0.398693
0.477124
0.35817
0.501961
0.422222
0.424837
0.308497
0.410458
0.406536
0.433987
0.521569
0.30719
0.488889
0.427451
0.51634
0.596078
0.616993
0.372549
0.478431
0.258824
0.703268
0.324183
0.411765
0.533333
0.260131
0.372549
0.545098
0.515033
0.313725
0.295425
0.29281
0.355556
0.501961
0.317647
0.511111
0.439216
0.545098
0.518954
0.413072
0.134641
0.538562
0.524183
0.433987
0.428758
0.562092
0.440523
0.50719
0.51634
0.552941
0.51634
0.479739
0.533333
0.520261
0.512418
0.532026
0.52549
0.513725
0.295425
0.296732
0.271895
0.269281
0.281046
0.326797
0.364706
0.470588
0.552941
0.32549
0.321569
0.294118
0.317647
0.440523
0.339869
0.267974
0.311111
0.355556
0.213072
0.308497
0.309804
0.467974
0.183007
0.563399
0.189542
0.542484
0.295425
0.437908
0.555556
0.180392
0.554248
0.556863
0.556863
0.464052
0.575163
0.552941
0.300654
0.562092
0.403922
0.556863
0.49281
0.28366
0.585621
0.552941
0.397386
0.218301
0.610458
0.175163
0.351634
0.55817
0.239216
0.495425
0.430065
0.616993
0.469281
0.264052
0.494118
0.398693
0.315033
0.419608
0.543791
0.494118
0.521569
0.31634
0.243137
0.333333
0.275817
0.362092
0.383007
0.360784
0.362092
0.19085
0.47451
0.355556
0.279739
0.236601
0.563399
0.36732
0.277124
0.179085
0.24183
0.162092
0.258824
0.27451
0.231373
0.271895
0.189542
0.247059
0.35817
0.214379
0.260131
0.235294
0.185621
0.244444
0.15817
0.166013
0.175163
0.159477
0.202614
0.304575
0.151634
0.286275
0.301961
0.301961
0.299346
0.32549
0.311111
0.320261
0.329412
0.298039
0.304575
0.296732
0.32549
0.248366
0.202614
0.271895
0.299346
0.275817
0.328105
0.228758
0.227451
0.305882
0.214379
0.30719
0.240523
0.230065
0.256209
0.23268
0.321569
0.305882
0.407843
0.31634
0.369935
0.335948
0.339869
0.31634
0.262745
0.443137
0.298039
0.381699
0.215686
0.393464
0.300654
0.313725
0.253595
0.313725
0.32549
0.300654
0.290196
0.267974
0.303268
0.318954
0.343791
0.282353
0.343791
0.321569
0.309804
0.345098
0.298039
0.385621
0.296732
0.260131
0.267974
0.299346
0.320261
0.35817
0.334641
0.397386
0.309804
0.304575
0.322876
0.362092
0.239216
0.346405
0.416993
0.371242
0.315033
0.32549
0.324183
0.320261
0.320261
0.317647
0.264052
0.320261
0.312418
0.329412
0.279739
0.308497
0.282353
0.308497
0.269281
0.294118
0.333333
0.312418
0.294118
0.375163
0.231373
0.216993
0.363399
0.197386
0.363399
0.394771
0.303268
0.299346
0.356863
0.373856
0.379085
0.286275
0.368627
0.267974
0.258824
0.249673
0.337255
0.233987
0.223529
0.312418
0.171242
0.282353
0.12549
0.213072
0.258824
0.25098
0.257516
0.277124
0.244444
0.25098
0.252288
0.235294
0.25098
0.253595
0.309804
0.264052
0.275817
0.240523
0.258824
0.248366
0.301961
0.271895
0.300654
0.29281
0.356863
0.295425
0.245752
0.24183
0.253595
0.25098
0.231373
0.287582
0.258824
0.277124
0.252288
0.279739
0.269281
0.303268
0.29281
0.300654
0.287582
0.295425
0.275817
0.156863
0.351634
0.362092
0.355556
0.247059
0.253595
0.29281
0.295425
0.281046
0.28366
0.300654
0.282353
0.252288
0.265359
0.29281
0.298039
0.265359
0.270588
0.239216
0.254902
0.248366
0.264052
0.240523
0.269281
0.294118
0.269281
0.29281
0.278431
0.315033
0.244444
0.269281
0.260131
0.266667
0.296732
0.24183
0.270588
0.313725
0.346405
0.330719
0.300654
0.311111
0.388235
0.298039
0.31634
0.311111
0.309804
0.311111
0.326797
0.35817
0.350327
0.277124
0.31634
0.326797
0.335948
0.308497
0.329412
0.339869
0.373856
0.36732
0.342484
0.337255
0.356863
0.350327
0.220915
0.277124
0.291503
0.300654
0.311111
0.275817
0.282353
0.284967
0.337255
0.288889
0.286275
0.291503
0.29281
0.281046
0.28366
0.143791
0.346405
0.198693
0.271895
0.368627
0.294118
0.453595
0.418301
0.410458
0.347712
0.356863
0.454902
0.435294
0.290196
0.233987
0.219608
0.287582
0.31634
0.31634
0.346405
0.266667
0.377778
0.328105
0.311111
0.237908
0.260131
0.301961
0.278431
0.518954
0.413072
0.39085
0.539869
0.422222
0.224837
0.583007
0.469281
0.354248
0.243137
0.416993
0.355556
0.369935
0.479739
0.501961
0.449673
0.458824
0.39085
0.534641
0.45098
0.511111
0.592157
0.503268
0.566013
0.577778
0.577778
0.465359
0.566013
0.44183
0.420915
0.356863
0.500654
0.4
0.328105
0.402614
0.371242
0.427451
0.498039
0.40915
0.414379
0.413072
0.345098
0.381699
0.473203
0.334641
0.477124
0.505882
0.359477
0.384314
0.346405
0.296732
0.491503
0.25098
0.30719
0.172549
0.284967
0.230065
0.24183
0.321569
0.287582
0.308497
0.288889
0.304575
0.299346
0.524183
0.380392
0.329412
0.396078
0.334641
0.254902
0.330719
0.350327
0.211765
0.257516
0.375163
0.196078
0.30719
0.366013
0.240523
0.294118
0.351634
0.326797
0.397386
0.422222
0.371242
0.490196
0.389542
0.335948
0.29281
0.345098
0.500654
0.513725
0.420915
0.355556
0.346405
0.305882
0.329412
0.359477
0.138562
0.19085
0.228758
0.175163
0.299346
0.231373
0.257516
0.366013
0.264052
0.398693
0.252288
0.337255
0.394771
0.355556
0.369935
0.394771
0.440523
0.337255
0.362092
0.284967
0.247059
0.330719
0.346405
0.252288
0.260131
0.243137
0.230065
0.273203
0.257516
0.366013
0.312418
0.32549
0.383007
0.277124
0.164706
0.284967
0.330719
0.275817
0.313725
0.193464
0.231373
0.189542
0.372549
0.206536
0.39085
0.309804
0.262745
0.201307
0.205229
0.333333
0.273203
0.105882
0.284967
0.162092
0.122876
0.113725
0.205229
0.130719
0.346405
0.261438
0.159477
0.132026
0.487582
0.134641
0.203922
0.267974
0.192157
0.290196
0.328105
0.321569
0.205229
0.407843
0.270588
0.515033
0.364706
0.258824
0.213072
0.196078
0.184314
0.185621
0.281046
0.406536
0.311111
0.261438
0.420915
0.247059
0.245752
0.326797
0.512418
0.188235
0.287582
0.23268
0.198693
0.20915
0.35817
0.277124
0.278431
0.162092
0.262745
0.132026
0.186928
0.12549
0.239216
0.104575
0.300654
0.198693
0.380392
0.156863
0.352941
0.258824
0.198693
0.278431
0.219608
0.185621
0.173856
0.152941
0.162092
0.164706
0.189542
0.183007
0.162092
0.169935
0.124183
0.206536
0.19085
0.15817
0.201307
0.171242
0.177778
0.24183
0.249673
0.284967
0.239216
0.214379
0.152941
0.236601
0.247059
0.271895
0.173856
0.196078
0.152941
0.194771
0.162092
0.147712
0.220915
0.186928
0.248366
0.20915
0.160784
0.143791
0.133333
0.143791
0.154248
0.172549
0.222222
0.318954
0.309804
0.2
0.147712
0.261438
0.198693
0.155556
0.295425
0.315033
0.239216
0.166013
0.164706
0.266667
0.394771
0.211765
0.207843
0.247059
0.460131
0.354248
0.345098
0.355556
0.401307
0.352941
0.359477
0.346405
0.206536
0.236601
0.339869
0.220915
0.175163
0.215686
0.210458
0.203922
0.264052
0.16732
0.164706
0.177778
0.265359
0.172549
0.177778
0.176471
0.25098
0.288889
0.304575
0.339869
0.333333
0.396078
0.341176
0.313725
0.342484
0.392157
0.381699
0.328105
0.328105
0.25098
0.430065
0.437908
0.363399
0.342484
0.386928
0.332026
0.308497
0.360784
0.318954
0.431373
0.346405
0.299346
0.394771
0.31634
0.326797
0.333333
0.364706
0.324183
0.486275
0.320261
0.342484
0.359477
0.366013
0.322876
0.389542
0.368627
0.252288
0.237908
0.248366
0.193464
0.270588
0.194771
0.309804
0.27451
0.318954
0.354248
0.202614
0.301961
0.355556
0.243137
0.362092
0.341176
0.347712
0.35817
0.342484
0.321569
0.379085
0.322876
0.350327
0.44183
0.315033
0.407843
0.287582
0.379085
0.333333
0.228758
0.388235
0.337255
0.252288
0.243137
0.34902
0.389542
0.386928
0.401307
0.376471
0.261438
0.146405
0.198693
0.162092
0.31634
0.266667
0.264052
0.273203
0.352941
0.267974
0.363399
0.284967
0.194771
0.258824
0.270588
0.239216
0.226144
0.326797
0.188235
0.266667
0.240523
0.152941
0.271895
0.169935
0.334641
0.286275
0.133333
0.333333
0.31634
0.324183
0.160784
0.261438
0.166013
0.173856
0.160784
0.235294
0.15817
0.193464
0.166013
0.210458
0.211765
0.166013
0.176471
0.192157
0.262745
0.15817
0.210458
0.175163
0.202614
0.176471
0.220915
0.189542
0.194771
0.150327
0.193464
0.188235
0.415686
0.155556
0.141176
0.265359
0.223529
0.193464
0.163399
0.145098
0.16732
0.39085
0.332026
0.364706
0.166013
0.313725
0.134641
0.427451
0.332026
0.375163
0.224837
0.435294
0.338562
0.324183
0.249673
0.410458
0.342484
0.320261
0.34902
0.356863
0.27451
0.298039
0.401307
0.359477
0.352941
0.332026
0.321569
0.464052
0.205229
0.324183
0.413072
0.443137
0.356863
0.269281
0.151634
0.308497
0.172549
0.269281
0.192157
0.126797
0.168627
0.194771
0.171242
0.28366
0.235294
0.189542
0.346405
0.155556
0.211765
0.413072
0.324183
0.24183
0.505882
0.269281
0.377778
0.376471
0.245752
0.175163
0.332026
0.23268
0.271895
0.388235
0.419608
0.317647
0.560784
0.35817
0.381699
0.339869
0.559477
0.512418
0.356863
0.428758
0.277124
0.342484
0.363399
0.423529
0.498039
0.29281
0.24183
0.388235
0.560784
0.430065
0.32549
0.499346
0.560784
0.388235
0.308497
0.464052
0.368627
0.301961
0.309804
0.31634
0.235294
0.55817
0.266667
0.32549
0.321569
0.315033
0.362092
0.430065
0.273203
0.269281
0.249673
0.332026
0.402614
0.150327
0.49281
0.350327
0.312418
0.230065
0.311111
0.341176
0.277124
0.260131
0.303268
0.394771
0.377778
0.375163
0.34902
0.245752
0.334641
0.355556
0.168627
0.332026
0.368627
0.350327
0.559477
0.332026
0.405229
0.397386
0.55817
0.56732
0.556863
0.563399
0.551634
0.350327
0.311111
0.384314
0.368627
0.413072
0.556863
0.560784
0.260131
0.556863
0.559477
0.556863
0.559477
0.55817
0.555556
0.559477
0.556863
0.556863
0.547712
0.329412
0.562092
0.322876
0.559477
0.49281
0.56732
0.556863
0.55817
0.556863
0.55817
0.556863
0.530719
0.555556
0.554248
0.556863
0.530719
0.471895
0.55817
0.334641
0.376471
0.560784
0.560784
0.436601
0.354248
0.366013
0.405229
0.282353
0.388235
0.32549
0.377778
0.309804
0.555556
0.313725
0.332026
0.35817
0.211765
0.303268
0.320261
0.282353
0.362092
0.288889
0.32549
0.332026
0.401307
0.294118
0.39085
0.386928
0.301961
0.317647
0.376471
0.359477
0.372549
0.364706
0.356863
0.305882
0.413072
0.228758
0.332026
0.311111
0.233987
0.371242
0.39085
0.335948
0.309804
0.364706
0.375163
0.330719
0.320261
0.201307
0.260131
0.29281
0.304575
0.219608
0.254902
0.172549
0.267974
0.19085
0.176471
0.311111
0.295425
0.192157
0.359477
0.416993
0.392157
0.300654
0.366013
0.396078
0.317647
0.426144
0.449673
0.329412
0.394771
0.337255
0.309804
0.279739
0.296732
0.369935
0.329412
0.300654
0.304575
0.162092
0.243137
0.332026
0.407843
0.296732
0.393464
0.220915
0.24183
0.282353
0.318954
0.375163
0.271895
0.313725
0.286275
0.277124
0.368627
0.422222
0.320261
0.457516
0.435294
0.465359
0.448366
0.290196
0.35817
0.312418
0.460131
0.317647
0.517647
0.461438
0.339869
0.473203
0.453595
0.188235
0.284967
0.467974
0.324183
0.301961
0.35817
0.309804
0.422222
0.237908
0.233987
0.27451
0.481046
0.262745
0.143791
0.461438
0.351634
0.362092
0.333333
0.384314
0.330719
0.484967
0.40915
0.371242
0.290196
0.338562
0.320261
0.320261
0.333333
0.339869
0.324183
0.334641
0.35817
0.394771
0.308497
0.433987
0.368627
0.448366
0.326797
0.381699
0.39085
0.509804
0.465359
0.509804
0.445752
0.414379
0.335948
0.39085
0.377778
0.524183
0.403922
0.529412
0.423529
0.528105
0.550327
0.551634
0.518954
0.551634
0.44183
0.528105
0.524183
0.530719
0.426144
0.51634
0.394771
0.32549
0.271895
0.343791
0.326797
0.313725
0.31634
0.288889
0.352941
0.401307
0.477124
0.535948
0.513725
0.440523
0.496732
0.363399
0.282353
0.569935
0.562092
0.448366
0.564706
0.447059
0.461438
0.528105
0.253595
0.551634